Generated using dynaphopy

1016 atoms

3 atom types


        0.0000000000        30.0809608512 xlo xhi
        0.0000000000        30.0809608512 ylo yhi
        0.0000000000        30.0809608512 zlo zhi
        0.0000000000         0.0000000000         0.0000000000 xy xz yz

Masses

1        22.9897692800 
2       121.7600000000 
3        78.9600000000 

Atoms

1 1         0.0000000000         0.0000000000         3.7601201064
2 1        15.0404804256         0.0000000000         3.7601201064
3 1         0.0000000000        15.0404804256         3.7601201064
4 1        15.0404804256        15.0404804256         3.7601201064
5 1         0.0000000000         0.0000000000        18.8006005320
6 1        15.0404804256         0.0000000000        18.8006005320
7 1         0.0000000000        15.0404804256        18.8006005320
8 1        15.0404804256        15.0404804256        18.8006005320
9 1         7.5202402128         0.0000000000         3.7601201064
10 1        22.5607206384         0.0000000000         3.7601201064
11 1         7.5202402128        15.0404804256         3.7601201064
12 1        22.5607206384        15.0404804256         3.7601201064
13 1         7.5202402128         0.0000000000        18.8006005320
14 1        22.5607206384         0.0000000000        18.8006005320
15 1         7.5202402128        15.0404804256        18.8006005320
16 1        22.5607206384        15.0404804256        18.8006005320
17 1         0.0000000000         7.5202402128         3.7601201064
18 1        15.0404804256         7.5202402128         3.7601201064
19 1         0.0000000000        22.5607206384         3.7601201064
20 1        15.0404804256        22.5607206384         3.7601201064
21 1         0.0000000000         7.5202402128        18.8006005320
22 1        15.0404804256         7.5202402128        18.8006005320
23 1         0.0000000000        22.5607206384        18.8006005320
24 1        15.0404804256        22.5607206384        18.8006005320
25 1         7.5202402128         7.5202402128         3.7601201064
26 1        22.5607206384         7.5202402128         3.7601201064
27 1         7.5202402128        22.5607206384         3.7601201064
28 1        22.5607206384        22.5607206384         3.7601201064
29 1         7.5202402128         7.5202402128        18.8006005320
30 1        22.5607206384         7.5202402128        18.8006005320
31 1         7.5202402128        22.5607206384        18.8006005320
32 1        22.5607206384        22.5607206384        18.8006005320
33 1         0.0000000000         0.0000000000        11.2803603192
34 1        15.0404804256         0.0000000000        11.2803603192
35 1         0.0000000000        15.0404804256        11.2803603192
36 1        15.0404804256        15.0404804256        11.2803603192
37 1         0.0000000000         0.0000000000        26.3208407448
38 1        15.0404804256         0.0000000000        26.3208407448
39 1         0.0000000000        15.0404804256        26.3208407448
40 1        15.0404804256        15.0404804256        26.3208407448
41 1         7.5202402128         0.0000000000        11.2803603192
42 1        22.5607206384         0.0000000000        11.2803603192
43 1         7.5202402128        15.0404804256        11.2803603192
44 1        22.5607206384        15.0404804256        11.2803603192
45 1         7.5202402128         0.0000000000        26.3208407448
46 1        22.5607206384         0.0000000000        26.3208407448
47 1         7.5202402128        15.0404804256        26.3208407448
48 1        22.5607206384        15.0404804256        26.3208407448
49 1         0.0000000000         7.5202402128        11.2803603192
50 1        15.0404804256         7.5202402128        11.2803603192
51 1         0.0000000000        22.5607206384        11.2803603192
52 1        15.0404804256        22.5607206384        11.2803603192
53 1         0.0000000000         7.5202402128        26.3208407448
54 1        15.0404804256         7.5202402128        26.3208407448
55 1         0.0000000000        22.5607206384        26.3208407448
56 1        15.0404804256        22.5607206384        26.3208407448
57 1         7.5202402128         7.5202402128        11.2803603192
58 1        22.5607206384         7.5202402128        11.2803603192
59 1         7.5202402128        22.5607206384        11.2803603192
60 1        22.5607206384        22.5607206384        11.2803603192
61 1         7.5202402128         7.5202402128        26.3208407448
62 1        22.5607206384         7.5202402128        26.3208407448
63 1         7.5202402128        22.5607206384        26.3208407448
64 1        22.5607206384        22.5607206384        26.3208407448
65 1         3.7601201064         0.0000000000         0.0000000000
66 1        18.8006005320         0.0000000000         0.0000000000
67 1         3.7601201064        15.0404804256         0.0000000000
68 1        18.8006005320        15.0404804256         0.0000000000
69 1         3.7601201064         0.0000000000        15.0404804256
70 1        18.8006005320         0.0000000000        15.0404804256
71 1         3.7601201064        15.0404804256        15.0404804256
72 1        18.8006005320        15.0404804256        15.0404804256
73 1        11.2803603192         0.0000000000         0.0000000000
74 1        26.3208407448         0.0000000000         0.0000000000
75 1        11.2803603192        15.0404804256         0.0000000000
76 1        26.3208407448        15.0404804256         0.0000000000
77 1        11.2803603192         0.0000000000        15.0404804256
78 1        26.3208407448         0.0000000000        15.0404804256
79 1        11.2803603192        15.0404804256        15.0404804256
80 1        26.3208407448        15.0404804256        15.0404804256
81 1         3.7601201064         7.5202402128         0.0000000000
82 1        18.8006005320         7.5202402128         0.0000000000
83 1         3.7601201064        22.5607206384         0.0000000000
84 1        18.8006005320        22.5607206384         0.0000000000
85 1         3.7601201064         7.5202402128        15.0404804256
86 1        18.8006005320         7.5202402128        15.0404804256
87 1         3.7601201064        22.5607206384        15.0404804256
88 1        18.8006005320        22.5607206384        15.0404804256
89 1        11.2803603192         7.5202402128         0.0000000000
90 1        26.3208407448         7.5202402128         0.0000000000
91 1        11.2803603192        22.5607206384         0.0000000000
92 1        26.3208407448        22.5607206384         0.0000000000
93 1        11.2803603192         7.5202402128        15.0404804256
94 1        26.3208407448         7.5202402128        15.0404804256
95 1        11.2803603192        22.5607206384        15.0404804256
96 1        26.3208407448        22.5607206384        15.0404804256
97 1         3.7601201064         0.0000000000         7.5202402128
98 1        18.8006005320         0.0000000000         7.5202402128
99 1         3.7601201064        15.0404804256         7.5202402128
100 1        18.8006005320        15.0404804256         7.5202402128
101 1         3.7601201064         0.0000000000        22.5607206384
102 1        18.8006005320         0.0000000000        22.5607206384
103 1         3.7601201064        15.0404804256        22.5607206384
104 1        18.8006005320        15.0404804256        22.5607206384
105 1        11.2803603192         0.0000000000         7.5202402128
106 1        26.3208407448         0.0000000000         7.5202402128
107 1        11.2803603192        15.0404804256         7.5202402128
108 1        26.3208407448        15.0404804256         7.5202402128
109 1        11.2803603192         0.0000000000        22.5607206384
110 1        26.3208407448         0.0000000000        22.5607206384
111 1        11.2803603192        15.0404804256        22.5607206384
112 1        26.3208407448        15.0404804256        22.5607206384
113 1         3.7601201064         7.5202402128         7.5202402128
114 1        18.8006005320         7.5202402128         7.5202402128
115 1         3.7601201064        22.5607206384         7.5202402128
116 1        18.8006005320        22.5607206384         7.5202402128
117 1         3.7601201064         7.5202402128        22.5607206384
118 1        18.8006005320         7.5202402128        22.5607206384
119 1         3.7601201064        22.5607206384        22.5607206384
120 1        18.8006005320        22.5607206384        22.5607206384
121 1        11.2803603192         7.5202402128         7.5202402128
122 1        26.3208407448         7.5202402128         7.5202402128
123 1        11.2803603192        22.5607206384         7.5202402128
124 1        26.3208407448        22.5607206384         7.5202402128
125 1        11.2803603192         7.5202402128        22.5607206384
126 1        26.3208407448         7.5202402128        22.5607206384
127 1        11.2803603192        22.5607206384        22.5607206384
128 1        26.3208407448        22.5607206384        22.5607206384
129 1         0.0000000000         3.7601201064         0.0000000000
130 1        15.0404804256         3.7601201064         0.0000000000
131 1         0.0000000000        18.8006005320         0.0000000000
132 1        15.0404804256        18.8006005320         0.0000000000
133 1         0.0000000000         3.7601201064        15.0404804256
134 1        15.0404804256         3.7601201064        15.0404804256
135 1         0.0000000000        18.8006005320        15.0404804256
136 1        15.0404804256        18.8006005320        15.0404804256
137 1         7.5202402128         3.7601201064         0.0000000000
138 1        22.5607206384         3.7601201064         0.0000000000
139 1         7.5202402128        18.8006005320         0.0000000000
140 1        22.5607206384        18.8006005320         0.0000000000
141 1         7.5202402128         3.7601201064        15.0404804256
142 1        22.5607206384         3.7601201064        15.0404804256
143 1         7.5202402128        18.8006005320        15.0404804256
144 1        22.5607206384        18.8006005320        15.0404804256
145 1         0.0000000000        11.2803603192         0.0000000000
146 1        15.0404804256        11.2803603192         0.0000000000
147 1         0.0000000000        26.3208407448         0.0000000000
148 1        15.0404804256        26.3208407448         0.0000000000
149 1         0.0000000000        11.2803603192        15.0404804256
150 1        15.0404804256        11.2803603192        15.0404804256
151 1         0.0000000000        26.3208407448        15.0404804256
152 1        15.0404804256        26.3208407448        15.0404804256
153 1         7.5202402128        11.2803603192         0.0000000000
154 1        22.5607206384        11.2803603192         0.0000000000
155 1         7.5202402128        26.3208407448         0.0000000000
156 1        22.5607206384        26.3208407448         0.0000000000
157 1         7.5202402128        11.2803603192        15.0404804256
158 1        22.5607206384        11.2803603192        15.0404804256
159 1         7.5202402128        26.3208407448        15.0404804256
160 1        22.5607206384        26.3208407448        15.0404804256
161 1         0.0000000000         3.7601201064         7.5202402128
162 1        15.0404804256         3.7601201064         7.5202402128
163 1         0.0000000000        18.8006005320         7.5202402128
164 1        15.0404804256        18.8006005320         7.5202402128
165 1         0.0000000000         3.7601201064        22.5607206384
166 1        15.0404804256         3.7601201064        22.5607206384
167 1         0.0000000000        18.8006005320        22.5607206384
168 1        15.0404804256        18.8006005320        22.5607206384
169 1         7.5202402128         3.7601201064         7.5202402128
170 1        22.5607206384         3.7601201064         7.5202402128
171 1         7.5202402128        18.8006005320         7.5202402128
172 1        22.5607206384        18.8006005320         7.5202402128
173 1         7.5202402128         3.7601201064        22.5607206384
174 1        22.5607206384         3.7601201064        22.5607206384
175 1         7.5202402128        18.8006005320        22.5607206384
176 1        22.5607206384        18.8006005320        22.5607206384
177 1         0.0000000000        11.2803603192         7.5202402128
178 1        15.0404804256        11.2803603192         7.5202402128
179 1         0.0000000000        26.3208407448         7.5202402128
180 1        15.0404804256        26.3208407448         7.5202402128
181 1         0.0000000000        11.2803603192        22.5607206384
182 1        15.0404804256        11.2803603192        22.5607206384
183 1         0.0000000000        26.3208407448        22.5607206384
184 1        15.0404804256        26.3208407448        22.5607206384
185 1         3.7601201064         3.7601201064         0.0000000000
186 1        18.8006005320         3.7601201064         0.0000000000
187 1         3.7601201064        18.8006005320         0.0000000000
188 1        18.8006005320        18.8006005320         0.0000000000
189 1         3.7601201064         3.7601201064        15.0404804256
190 1        18.8006005320         3.7601201064        15.0404804256
191 1         3.7601201064        18.8006005320        15.0404804256
192 1        18.8006005320        18.8006005320        15.0404804256
193 1        11.2803603192         3.7601201064         0.0000000000
194 1        26.3208407448         3.7601201064         0.0000000000
195 1        11.2803603192        18.8006005320         0.0000000000
196 1        26.3208407448        18.8006005320         0.0000000000
197 1        11.2803603192         3.7601201064        15.0404804256
198 1        26.3208407448         3.7601201064        15.0404804256
199 1        11.2803603192        18.8006005320        15.0404804256
200 1        26.3208407448        18.8006005320        15.0404804256
201 1         3.7601201064        11.2803603192         0.0000000000
202 1        18.8006005320        11.2803603192         0.0000000000
203 1         3.7601201064        26.3208407448         0.0000000000
204 1        18.8006005320        26.3208407448         0.0000000000
205 1         3.7601201064        11.2803603192        15.0404804256
206 1        18.8006005320        11.2803603192        15.0404804256
207 1         3.7601201064        26.3208407448        15.0404804256
208 1        18.8006005320        26.3208407448        15.0404804256
209 1        11.2803603192        11.2803603192         0.0000000000
210 1        26.3208407448        11.2803603192         0.0000000000
211 1        11.2803603192        26.3208407448         0.0000000000
212 1        26.3208407448        26.3208407448         0.0000000000
213 1        11.2803603192        11.2803603192        15.0404804256
214 1        26.3208407448        11.2803603192        15.0404804256
215 1        11.2803603192        26.3208407448        15.0404804256
216 1        26.3208407448        26.3208407448        15.0404804256
217 1         3.7601201064         3.7601201064         7.5202402128
218 1        18.8006005320         3.7601201064         7.5202402128
219 1         3.7601201064        18.8006005320         7.5202402128
220 1        18.8006005320        18.8006005320         7.5202402128
221 1         3.7601201064         3.7601201064        22.5607206384
222 1        18.8006005320         3.7601201064        22.5607206384
223 1         3.7601201064        18.8006005320        22.5607206384
224 1        18.8006005320        18.8006005320        22.5607206384
225 1        11.2803603192         3.7601201064         7.5202402128
226 1        26.3208407448         3.7601201064         7.5202402128
227 1        11.2803603192        18.8006005320         7.5202402128
228 1        26.3208407448        18.8006005320         7.5202402128
229 1        11.2803603192         3.7601201064        22.5607206384
230 1        26.3208407448         3.7601201064        22.5607206384
231 1        11.2803603192        18.8006005320        22.5607206384
232 1        26.3208407448        18.8006005320        22.5607206384
233 1         3.7601201064        11.2803603192         7.5202402128
234 1        18.8006005320        11.2803603192         7.5202402128
235 1         3.7601201064        26.3208407448         7.5202402128
236 1        18.8006005320        26.3208407448         7.5202402128
237 1         3.7601201064        11.2803603192        22.5607206384
238 1        18.8006005320        11.2803603192        22.5607206384
239 1         3.7601201064        26.3208407448        22.5607206384
240 1        18.8006005320        26.3208407448        22.5607206384
241 1        11.2803603192        11.2803603192         7.5202402128
242 1        26.3208407448        11.2803603192         7.5202402128
243 1        11.2803603192        26.3208407448         7.5202402128
244 1        26.3208407448        26.3208407448         7.5202402128
245 1        11.2803603192        11.2803603192        22.5607206384
246 1        26.3208407448        11.2803603192        22.5607206384
247 1        11.2803603192        26.3208407448        22.5607206384
248 1        26.3208407448        26.3208407448        22.5607206384
249 1         0.0000000000         3.7601201064         3.7601201064
250 1        15.0404804256         3.7601201064         3.7601201064
251 1         0.0000000000        18.8006005320         3.7601201064
252 1        15.0404804256        18.8006005320         3.7601201064
253 1         0.0000000000         3.7601201064        18.8006005320
254 1        15.0404804256         3.7601201064        18.8006005320
255 1         0.0000000000        18.8006005320        18.8006005320
256 1        15.0404804256        18.8006005320        18.8006005320
257 1         7.5202402128         3.7601201064         3.7601201064
258 1        22.5607206384         3.7601201064         3.7601201064
259 1         7.5202402128        18.8006005320         3.7601201064
260 1        22.5607206384        18.8006005320         3.7601201064
261 1         7.5202402128         3.7601201064        18.8006005320
262 1        22.5607206384         3.7601201064        18.8006005320
263 1         7.5202402128        18.8006005320        18.8006005320
264 1        22.5607206384        18.8006005320        18.8006005320
265 1         0.0000000000        11.2803603192         3.7601201064
266 1        15.0404804256        11.2803603192         3.7601201064
267 1         0.0000000000        26.3208407448         3.7601201064
268 1        15.0404804256        26.3208407448         3.7601201064
269 1         0.0000000000        11.2803603192        18.8006005320
270 1        15.0404804256        11.2803603192        18.8006005320
271 1         0.0000000000        26.3208407448        18.8006005320
272 1        15.0404804256        26.3208407448        18.8006005320
273 1         7.5202402128        11.2803603192         3.7601201064
274 1        22.5607206384        11.2803603192         3.7601201064
275 1         7.5202402128        26.3208407448         3.7601201064
276 1        22.5607206384        26.3208407448         3.7601201064
277 1         7.5202402128        11.2803603192        18.8006005320
278 1        22.5607206384        11.2803603192        18.8006005320
279 1         7.5202402128        26.3208407448        18.8006005320
280 1        22.5607206384        26.3208407448        18.8006005320
281 1         0.0000000000         3.7601201064        11.2803603192
282 1        15.0404804256         3.7601201064        11.2803603192
283 1         0.0000000000        18.8006005320        11.2803603192
284 1        15.0404804256        18.8006005320        11.2803603192
285 1         0.0000000000         3.7601201064        26.3208407448
286 1        15.0404804256         3.7601201064        26.3208407448
287 1         0.0000000000        18.8006005320        26.3208407448
288 1        15.0404804256        18.8006005320        26.3208407448
289 1         7.5202402128         3.7601201064        11.2803603192
290 1        22.5607206384         3.7601201064        11.2803603192
291 1         7.5202402128        18.8006005320        11.2803603192
292 1        22.5607206384        18.8006005320        11.2803603192
293 1         7.5202402128         3.7601201064        26.3208407448
294 1        22.5607206384         3.7601201064        26.3208407448
295 1         7.5202402128        18.8006005320        26.3208407448
296 1        22.5607206384        18.8006005320        26.3208407448
297 1         0.0000000000        11.2803603192        11.2803603192
298 1        15.0404804256        11.2803603192        11.2803603192
299 1         0.0000000000        26.3208407448        11.2803603192
300 1        15.0404804256        26.3208407448        11.2803603192
301 1         0.0000000000        11.2803603192        26.3208407448
302 1        15.0404804256        11.2803603192        26.3208407448
303 1         0.0000000000        26.3208407448        26.3208407448
304 1        15.0404804256        26.3208407448        26.3208407448
305 1         7.5202402128        11.2803603192        11.2803603192
306 1        22.5607206384        11.2803603192        11.2803603192
307 1         7.5202402128        26.3208407448        11.2803603192
308 1        22.5607206384        26.3208407448        11.2803603192
309 1         7.5202402128        11.2803603192        26.3208407448
310 1        22.5607206384        11.2803603192        26.3208407448
311 1         7.5202402128        26.3208407448        26.3208407448
312 1        22.5607206384        26.3208407448        26.3208407448
313 1         3.7601201064         0.0000000000         3.7601201064
314 1        18.8006005320         0.0000000000         3.7601201064
315 1         3.7601201064        15.0404804256         3.7601201064
316 1        18.8006005320        15.0404804256         3.7601201064
317 1         3.7601201064         0.0000000000        18.8006005320
318 1        18.8006005320         0.0000000000        18.8006005320
319 1         3.7601201064        15.0404804256        18.8006005320
320 1        18.8006005320        15.0404804256        18.8006005320
321 1        11.2803603192         0.0000000000         3.7601201064
322 1        26.3208407448         0.0000000000         3.7601201064
323 1        11.2803603192        15.0404804256         3.7601201064
324 1        26.3208407448        15.0404804256         3.7601201064
325 1        11.2803603192         0.0000000000        18.8006005320
326 1        26.3208407448         0.0000000000        18.8006005320
327 1        11.2803603192        15.0404804256        18.8006005320
328 1        26.3208407448        15.0404804256        18.8006005320
329 1         3.7601201064         7.5202402128         3.7601201064
330 1        18.8006005320         7.5202402128         3.7601201064
331 1         3.7601201064        22.5607206384         3.7601201064
332 1        18.8006005320        22.5607206384         3.7601201064
333 1         3.7601201064         7.5202402128        18.8006005320
334 1        18.8006005320         7.5202402128        18.8006005320
335 1         3.7601201064        22.5607206384        18.8006005320
336 1        18.8006005320        22.5607206384        18.8006005320
337 1        11.2803603192         7.5202402128         3.7601201064
338 1        26.3208407448         7.5202402128         3.7601201064
339 1        11.2803603192        22.5607206384         3.7601201064
340 1        26.3208407448        22.5607206384         3.7601201064
341 1        11.2803603192         7.5202402128        18.8006005320
342 1        26.3208407448         7.5202402128        18.8006005320
343 1        11.2803603192        22.5607206384        18.8006005320
344 1        26.3208407448        22.5607206384        18.8006005320
345 1         3.7601201064         0.0000000000        11.2803603192
346 1        18.8006005320         0.0000000000        11.2803603192
347 1         3.7601201064        15.0404804256        11.2803603192
348 1        18.8006005320        15.0404804256        11.2803603192
349 1         3.7601201064         0.0000000000        26.3208407448
350 1        18.8006005320         0.0000000000        26.3208407448
351 1         3.7601201064        15.0404804256        26.3208407448
352 1        18.8006005320        15.0404804256        26.3208407448
353 1        11.2803603192         0.0000000000        11.2803603192
354 1        26.3208407448         0.0000000000        11.2803603192
355 1        11.2803603192        15.0404804256        11.2803603192
356 1        26.3208407448        15.0404804256        11.2803603192
357 1        11.2803603192         0.0000000000        26.3208407448
358 1        26.3208407448         0.0000000000        26.3208407448
359 1        11.2803603192        15.0404804256        26.3208407448
360 1        26.3208407448        15.0404804256        26.3208407448
361 1         3.7601201064         7.5202402128        11.2803603192
362 1        18.8006005320         7.5202402128        11.2803603192
363 1         3.7601201064        22.5607206384        11.2803603192
364 1        18.8006005320        22.5607206384        11.2803603192
365 1         3.7601201064         7.5202402128        26.3208407448
366 1        18.8006005320         7.5202402128        26.3208407448
367 1         3.7601201064        22.5607206384        26.3208407448
368 1        18.8006005320        22.5607206384        26.3208407448
369 1        11.2803603192         7.5202402128        11.2803603192
370 1        26.3208407448         7.5202402128        11.2803603192
371 1        11.2803603192        22.5607206384        11.2803603192
372 1        26.3208407448        22.5607206384        11.2803603192
373 1        11.2803603192         7.5202402128        26.3208407448
374 1        26.3208407448         7.5202402128        26.3208407448
375 1        11.2803603192        22.5607206384        26.3208407448
376 1        26.3208407448        22.5607206384        26.3208407448
377 2         0.0000000000         0.0000000000         0.0000000000
378 2        15.0404804256         0.0000000000         0.0000000000
379 2         0.0000000000        15.0404804256         0.0000000000
380 2        15.0404804256        15.0404804256         0.0000000000
381 2         0.0000000000         0.0000000000        15.0404804256
382 2        15.0404804256         0.0000000000        15.0404804256
383 2         0.0000000000        15.0404804256        15.0404804256
384 2        15.0404804256        15.0404804256        15.0404804256
385 2         7.5202402128         0.0000000000         0.0000000000
386 2        22.5607206384         0.0000000000         0.0000000000
387 2         7.5202402128        15.0404804256         0.0000000000
388 2        22.5607206384        15.0404804256         0.0000000000
389 2         7.5202402128         0.0000000000        15.0404804256
390 2        22.5607206384         0.0000000000        15.0404804256
391 2         7.5202402128        15.0404804256        15.0404804256
392 2        22.5607206384        15.0404804256        15.0404804256
393 2         0.0000000000         7.5202402128         0.0000000000
394 2        15.0404804256         7.5202402128         0.0000000000
395 2         0.0000000000        22.5607206384         0.0000000000
396 2        15.0404804256        22.5607206384         0.0000000000
397 2         0.0000000000         7.5202402128        15.0404804256
398 2        15.0404804256         7.5202402128        15.0404804256
399 2         0.0000000000        22.5607206384        15.0404804256
400 2        15.0404804256        22.5607206384        15.0404804256
401 2         7.5202402128         7.5202402128         0.0000000000
402 2        22.5607206384         7.5202402128         0.0000000000
403 2         7.5202402128        22.5607206384         0.0000000000
404 2        22.5607206384        22.5607206384         0.0000000000
405 2         7.5202402128         7.5202402128        15.0404804256
406 2        22.5607206384         7.5202402128        15.0404804256
407 2         7.5202402128        22.5607206384        15.0404804256
408 2        22.5607206384        22.5607206384        15.0404804256
409 2         0.0000000000         0.0000000000         7.5202402128
410 2        15.0404804256         0.0000000000         7.5202402128
411 2         0.0000000000        15.0404804256         7.5202402128
412 2        15.0404804256        15.0404804256         7.5202402128
413 2         0.0000000000         0.0000000000        22.5607206384
414 2        15.0404804256         0.0000000000        22.5607206384
415 2         0.0000000000        15.0404804256        22.5607206384
416 2        15.0404804256        15.0404804256        22.5607206384
417 2         7.5202402128         0.0000000000         7.5202402128
418 2        22.5607206384         0.0000000000         7.5202402128
419 2         7.5202402128        15.0404804256         7.5202402128
420 2        22.5607206384        15.0404804256         7.5202402128
421 2         7.5202402128         0.0000000000        22.5607206384
422 2        22.5607206384         0.0000000000        22.5607206384
423 2         7.5202402128        15.0404804256        22.5607206384
424 2        22.5607206384        15.0404804256        22.5607206384
425 2         0.0000000000         7.5202402128         7.5202402128
426 2        15.0404804256         7.5202402128         7.5202402128
427 2         0.0000000000        22.5607206384         7.5202402128
428 2        15.0404804256        22.5607206384         7.5202402128
429 2         0.0000000000         7.5202402128        22.5607206384
430 2        15.0404804256         7.5202402128        22.5607206384
431 2         0.0000000000        22.5607206384        22.5607206384